# vtk DataFile Version 1.0
Unstructured Grid Example
ASCII
DATASET UNSTRUCTURED_GRID

POINTS 2688 float
0.290334 -0.294031 -0.300014
-0.330002 -0.278146 -0.069653
0.305020 -0.092635 0.081979
0.317221 -0.292005 -0.300374
0.278121 -0.305945 -0.289344
0.345355 -0.294386 -0.291452
0.305370 -0.268697 -0.287534
0.341687 -0.277973 -0.275954
0.291735 -0.260338 -0.271798
0.352960 -0.286816 -0.257884
0.360152 -0.307640 -0.267852
0.349273 -0.278512 -0.264742
0.282927 -0.251798 -0.258103
0.257344 -0.267410 -0.245215
0.249903 -0.261356 -0.237538
-0.254518 -0.385737 -0.236449
0.341538 -0.328950 -0.228447
0.281979 -0.215076 -0.213887
0.320788 -0.336908 -0.228871
0.336059 -0.311884 -0.229667
0.247618 -0.274877 -0.228479
-0.333563 -0.378769 -0.227758
-0.271706 -0.375157 -0.218543
0.274662 -0.216445 -0.221515
0.222283 -0.202533 -0.204954
0.277993 -0.208894 -0.197443
0.198122 -0.208938 -0.207309
-0.256088 -0.392798 -0.191677
-0.317120 -0.345444 -0.198592
0.200597 -0.256479 -0.199860
-0.215995 -0.281853 -0.188140
0.306380 -0.234847 -0.189183
-0.213051 -0.308845 -0.191174
0.173354 -0.184250 -0.183600
-0.358445 -0.396329 -0.184934
-0.256738 -0.361984 -0.189854
-0.259780 -0.282705 -0.184919
-0.356553 -0.410561 -0.178325
0.222097 -0.186626 -0.180892
-0.152492 -0.291583 -0.168880
-0.141346 -0.246116 -0.175326
0.293347 -0.246495 -0.171699
-0.353744 -0.398509 -0.170106
-0.197113 -0.251961 -0.170332
-0.314997 -0.432056 -0.167445
0.203940 -0.266743 -0.162505
-0.287443 -0.287748 -0.170472
-0.153856 -0.216616 -0.164614
-0.346999 -0.408405 -0.162926
-0.345804 -0.385432 -0.162030
-0.216026 -0.340356 -0.164156
-0.289553 -0.307078 -0.176449
-0.229006 -0.255218 -0.165067
-0.326374 -0.427359 -0.164015
0.127398 -0.150884 -0.155369
-0.159348 -0.308987 -0.158625
-0.128150 -0.188450 -0.156665
-0.049598 -0.181108 -0.160355
0.088740 -0.160415 -0.157089
-0.099908 -0.239188 -0.157116
-0.041520 -0.231798 -0.156582
-0.049271 -0.199616 -0.161014
-0.105046 -0.187256 -0.160559
0.260503 -0.198755 -0.156402
0.162973 -0.150644 -0.149225
0.157718 0.009024 -0.155263
-0.340288 -0.395795 -0.156639
-0.132698 -0.287866 -0.155576
0.134280 0.013396 -0.152495
0.285001 -0.219189 -0.168526
0.111520 -0.156641 -0.159088
0.111880 0.019330 -0.149741
0.079034 -0.196666 -0.151406
-0.111585 -0.157858 -0.151337
-0.304838 -0.328645 -0.149644
-0.140943 -0.298421 -0.150522
0.205950 -0.171638 -0.159787
-0.044485 -0.158235 -0.154135
-0.236205 -0.357265 -0.153242
0.258526 -0.211282 -0.138346
0.091366 0.024578 -0.142511
-0.078789 -0.251516 -0.145908
-0.164960 -0.183337 -0.146877
-0.304590 -0.261260 -0.147119
0.206928 -0.263774 -0.151912
-0.301203 -0.314580 -0.146762
-0.157797 -0.312692 -0.148305
-0.028491 -0.152052 -0.147918
-0.020472 -0.246077 -0.147310
0.004895 -0.169569 -0.140767
-0.206361 -0.337846 -0.140186
-0.040107 -0.261769 -0.141289
-0.014731 -0.153348 -0.141919
-0.065382 -0.112848 -0.141937
0.212598 0.009442 -0.135277
-0.317791 -0.367631 -0.143874
-0.121513 -0.138435 -0.145154
0.188368 0.016358 -0.137096
0.048321 -0.196473 -0.137937
0.042680 -0.179594 -0.138593
0.073282 0.034243 -0.135550
-0.303494 -0.333632 -0.140218
-0.300694 -0.312364 -0.135888
0.197535 -0.022181 -0.135103
-0.040619 -0.122688 -0.137313
-0.138898 -0.119386 -0.135697
0.234579 0.000678 -0.134532
0.047445 0.028567 -0.137389
0.196303 -0.152337 -0.124794
-0.000585 -0.153762 -0.133013
-0.294376 -0.330351 -0.130776
-0.182353 -0.323531 -0.129103
-0.166605 -0.150470 -0.131506
0.172551 -0.016286 -0.134891
-0.019530 -0.273390 -0.127189
0.029457 0.033921 -0.129947
0.178982 -0.152454 -0.144225
-0.109726 -0.276621 -0.130217
-0.020104 -0.136837 -0.133596
-0.120685 -0.079852 -0.131023
-0.339838 -0.286579 -0.132983
-0.150445 -0.108204 -0.127885
-0.046040 -0.106016 -0.129259
0.238189 -0.019995 -0.128260
0.055510 0.041089 -0.127624
-0.115005 -0.283643 -0.120338
-0.281412 -0.376303 -0.137975
0.036065 -0.230432 -0.129816
0.019078 -0.162914 -0.132384
-0.162203 -0.123388 -0.123695
-0.342851 -0.277472 -0.124243
0.184488 -0.146813 -0.129872
-0.225999 -0.347311 -0.132974
-0.150101 -0.081530 -0.122198
-0.306448 -0.303373 -0.130650
0.130053 -0.004307 -0.127201
-0.207920 -0.164973 -0.121366
-0.069863 -0.075715 -0.119298
-0.134696 -0.066904 -0.121530
0.160885 -0.128605 -0.121581
0.143404 -0.121826 -0.122582
0.216377 0.020577 -0.117204
0.022899 0.052299 -0.114034
-0.170007 -0.111670 -0.115336
-0.130393 -0.294042 -0.119773
-0.209864 -0.145392 -0.110490
-0.031932 -0.108775 -0.118002
0.094712 -0.242335 -0.109227
-0.008747 -0.130414 -0.119018
0.062180 -0.123822 -0.117960
0.024415 -0.127755 -0.108256
-0.296300 -0.307870 -0.115228
-0.163305 -0.070078 -0.110606
-0.260563 -0.261442 -0.110542
-0.137701 -0.296326 -0.105639
0.245978 -0.012626 -0.106106
0.071972 0.017883 -0.098329
0.088491 0.055233 -0.105289
-0.252146 -0.251081 -0.104548
-0.101203 -0.050170 -0.103987
0.092612 -0.426043 -0.104000
-0.281993 -0.309020 -0.105888
-0.282377 -0.283093 -0.100542
-0.021868 0.054076 -0.103398
-0.081473 -0.292423 -0.103759
-0.180158 -0.103239 -0.105026
-0.035994 -0.092187 -0.103513
0.063308 0.051795 -0.111431
-0.339551 -0.281191 -0.094872
0.200521 -0.224560 -0.096559
0.222456 -0.176290 -0.106153
0.133136 0.055073 -0.094899
0.043695 -0.256057 -0.107926
-0.130739 -0.043109 -0.101321
0.222656 -0.014639 -0.106018
-0.191733 -0.117997 -0.102086
0.168644 -0.000451 -0.098157
0.143712 -0.420866 -0.099004
-0.312920 -0.271637 -0.098840
0.112352 -0.248468 -0.096288
0.061942 -0.254349 -0.102746
-0.249497 -0.181716 -0.087576
0.181177 -0.130168 -0.097416
0.030505 0.026868 -0.096811
0.208557 -0.160111 -0.101562
-0.062623 -0.063220 -0.091598
-0.160400 -0.043055 -0.092549
-0.342868 -0.295816 -0.096668
-0.248816 -0.225181 -0.089435
0.070953 -0.093121 -0.096949
-0.174803 -0.059886 -0.096267
0.112993 0.059399 -0.091810
-0.035378 0.062504 -0.091814
-0.190937 -0.094781 -0.090848
0.097510 -0.256555 -0.091201
0.132100 -0.249788 -0.082404
0.125269 -0.387148 -0.083617
0.113343 -0.383655 -0.086504
-0.019953 0.043364 -0.084890
-0.238510 -0.317961 -0.093642
-0.238727 -0.300220 -0.086156
0.173320 -0.233060 -0.084515
-0.242128 -0.157764 -0.089298
0.080785 -0.371203 -0.075982
-0.189894 -0.301745 -0.076988
0.190725 -0.136677 -0.087419
-0.042298 -0.076150 -0.086798
-0.142280 -0.032577 -0.082927
0.004277 0.039805 -0.077446
-0.003219 -0.105081 -0.090159
-0.053986 -0.313980 -0.085135
-0.303668 -0.310108 -0.083723
-0.064662 -0.323776 -0.076853
-0.123701 -0.296967 -0.083344
-0.096301 -0.433394 -0.089201
-0.218877 -0.298938 -0.069275
-0.070575 -0.052364 -0.077602
-0.168420 -0.034784 -0.072993
-0.183653 -0.050752 -0.077803
-0.027584 0.085251 -0.073096
0.133436 -0.387664 -0.079531
0.186322 -0.219745 -0.074954
-0.095951 -0.039266 -0.075111
0.207685 -0.161508 -0.081001
0.151784 -0.413829 -0.072998
-0.084105 -0.333678 -0.072191
-0.252794 -0.221922 -0.068937
0.011323 0.083692 -0.060921
0.165960 -0.233653 -0.070750
-0.076563 -0.458809 -0.077845
0.079156 -0.280477 -0.071400
0.208142 -0.169042 -0.066962
-0.123888 -0.029538 -0.068924
0.096835 -0.444145 -0.092089
-0.075219 -0.339382 -0.068096
0.197731 -0.142890 -0.077912
-0.116759 -0.348132 -0.066875
0.115672 -0.282128 -0.065267
0.033565 -0.066615 -0.066690
0.148742 -0.404386 -0.067300
0.047895 -0.279716 -0.071098
0.137661 -0.297752 -0.061192
0.193618 -0.126594 -0.064480
-0.242144 -0.127965 -0.058237
0.175351 -0.098636 -0.062065
0.190918 -0.207963 -0.058187
0.099882 -0.057928 -0.062710
-0.156058 -0.398267 -0.060901
-0.133574 -0.350664 -0.059460
-0.128466 -0.320928 -0.062596
0.150575 -0.255757 -0.061490
0.199805 -0.195729 -0.058702
0.206316 -0.182720 -0.061275
0.164198 0.068086 -0.040168
-0.126455 -0.332901 -0.062059
-0.031009 -0.319875 -0.064884
0.135017 -0.267093 -0.062377
0.117766 0.074038 -0.052241
0.139649 -0.278790 -0.058097
-0.050470 0.080575 -0.058995
-0.171948 -0.030508 -0.055633
0.021295 -0.050514 -0.046705
-0.167457 -0.464137 -0.054783
0.157395 -0.354651 -0.050363
-0.001808 -0.315397 -0.047606
0.050339 -0.289623 -0.046257
0.205886 -0.162174 -0.053470
-0.080318 -0.042051 -0.059644
0.186842 0.005540 -0.079305
-0.208477 -0.077027 -0.048585
0.032920 -0.291632 -0.055826
0.199559 -0.194651 -0.043841
0.193686 -0.113033 -0.053407
0.078385 -0.468320 -0.051390
-0.247524 -0.242816 -0.052583
-0.147434 -0.324105 -0.048101
-0.201935 -0.058334 -0.042162
-0.045437 0.062702 -0.049050
-0.085799 -0.428547 -0.049763
0.163375 -0.463397 -0.040142
0.075357 -0.454449 -0.048981
0.193376 -0.210122 -0.040024
-0.262594 -0.152388 -0.039376
-0.165790 -0.412944 -0.046956
-0.294320 -0.248230 -0.038609
0.077083 -0.435215 -0.043679
-0.223565 -0.276434 -0.046648
0.207273 -0.125094 -0.039676
-0.153301 -0.300818 -0.059876
0.177470 -0.241445 -0.040083
0.039776 -0.045021 -0.048632
-0.209623 -0.285694 -0.045477
-0.025624 0.098577 -0.037846
-0.157693 -0.486540 -0.040110
0.089479 -0.038792 -0.044361
0.074108 -0.307971 -0.044155
-0.264756 -0.221194 -0.037532
-0.081999 -0.424674 -0.030237
-0.264298 -0.240461 -0.035386
0.083638 -0.470238 -0.035981
-0.164645 -0.403577 -0.032459
-0.207898 -0.280636 -0.030485
-0.056763 -0.047153 -0.030122
-0.133850 -0.499371 -0.033467
-0.078924 -0.469376 -0.024063
-0.269296 -0.268887 -0.013986
-0.016009 -0.058865 -0.033377
-0.203523 -0.055486 -0.023616
0.050247 -0.028723 -0.031416
0.076244 -0.344999 -0.025976
-0.167205 -0.351320 -0.023670
-0.085090 -0.493516 -0.026253
0.142867 -0.438815 -0.022885
0.040325 -0.297160 -0.032611
-0.173530 -0.028283 -0.037102
-0.005346 -0.327557 -0.026218
-0.273359 -0.179494 -0.019588
0.092278 -0.444885 -0.024730
0.072170 -0.298372 -0.023082
0.126676 0.046283 -0.019398
-0.131390 -0.500001 -0.022244
-0.143071 -0.485479 -0.020123
0.090623 -0.457707 -0.023089
0.198825 -0.076066 -0.033418
0.044732 0.051537 -0.033310
0.063960 -0.290493 -0.029226
-0.279791 -0.212348 -0.021309
0.117943 0.086352 -0.021011
-0.113660 -0.021450 -0.013555
-0.268164 -0.158845 -0.021319
0.205143 0.033239 -0.012430
0.213122 0.061165 -0.018595
0.223121 0.054515 -0.013622
0.250890 0.089586 -0.008035
0.192857 0.038373 -0.012108
0.201522 0.075493 -0.011235
[...]
POINT_DATA 2688
SCALARS scalars float
LOOKUP_TABLE default
675.1369598370
477.3615176800
731.9416384714
675.8701913681
674.6921025674
676.6377665017
674.9645047224
676.5195405307
673.4478538278
677.1203861080
676.9596226949
676.8857786439
672.0934932993
669.3542408547
667.2861274799
468.3878762882
676.4983009034
676.1199563928
675.9449610498
676.5208609752
666.8929269491
467.5341359314
470.5878017219
674.9023454176
667.8889576157
677.1890107361
662.1287519285
471.0396935956
469.3161568872
658.5980431335
484.8712906752
677.7854363182
486.1627343564
660.1524285566
467.3090406554
476.9817654842
477.4229344276
467.3070080780
673.5537028599
495.5752188894
507.2777117627
677.2269320881
467.6413253831
489.9915568672
468.4661394386
664.1644140388
474.1521261319
507.1026951923
467.6315985883
468.1900530813
482.4146498119
472.7784338161
484.9083043608
468.2662432956
651.9399882583
491.9175580992
515.0483457252
546.8412329492
633.7530070615
519.4475226466
550.1510822254
549.5784354305
525.0732146498
677.6740525973
667.5291755458
741.7786695893
468.1499470944
499.8238208901
741.1530884942
677.7734554258
643.5696577802
740.3096201925
622.8687223961
521.9853626161
470.2988041129
497.7397932285
673.5219020393
548.3759316415
479.1007452859
677.2199242555
739.2862352526
527.1039078602
508.3313829619
476.4748932833
664.8807898886
471.7651549942
491.4563921288
557.6343962636
558.3036946808
576.0459703333
482.0138597345
547.8844326318
565.5420489347
544.6666776923
742.1790810916
469.6863406151
523.1142741542
742.2703571542
605.3045066340
599.5786047599
738.6841750453
470.3655547150
473.0637468078
741.4418937657
555.1130065799
522.5763858827
741.8835649906
737.8813554148
676.9785671707
573.4669775800
471.6943501451
485.1492976990
510.6075762059
741.2485817434
557.8678303438
736.8489603777
671.8223448543
507.6220324942
563.3807143030
530.8405026407
474.6759594699
522.6729035747
553.1468324569
741.4313054502
738.0862329323
502.7364665913
473.8192772608
588.4736499579
585.1798085139
518.2950590889
475.1173552348
674.9282559721
479.0408372823
524.8436688933
473.8407354395
740.3453200975
500.7834216375
546.7454767665
529.9225959157
671.8503935627
666.2151801144
742.2309276824
735.6261586481
517.9388860160
495.4879282616
504.2397208209
562.0381822832
634.0038697343
574.0299133116
615.7949506983
598.8728425199
474.5013416568
524.5318410622
481.0716757990
494.0883602111
740.7624688996
737.3256723077
739.7357999666
482.8835564004
540.3914869121
638.9425488981
475.2751163704
477.4757813246
732.4220335487
521.3020575821
515.7118374249
561.9520820571
738.5246068226
475.8958156020
669.6352459337
677.5242341331
741.9161191476
591.2542820385
533.0286209600
739.2870307271
510.3503205098
735.8768085913
642.9869373230
476.8171744658
642.8215985117
606.4288833287
490.1925272909
678.4773410633
735.3100166187
678.3945762507
551.3223790147
527.7022643820
475.7272937945
484.7689041119
629.0865462271
522.2788012218
741.0203375607
731.0563712959
514.1371875297
633.2826965851
650.0303595067
641.2890689483
639.6804534860
731.7235137712
478.4999433749
480.5131088828
663.9763222738
496.6725204228
631.2921999274
485.1090500578
679.9349366125
560.0207145364
533.2848043289
732.8372081916
585.0150036825
532.3268459254
476.5652549971
527.1324040486
500.9786220585
509.5864986309
482.0821541900
553.8949782412
527.7056470114
522.8052929493
730.6147865191
643.1589035872
667.3366496353
547.6656575467
678.0916133990
644.6431978824
517.9540428231
484.1247986993
734.8218548226
662.4901536551
507.7679097406
621.1982444562
676.6901770889
540.4036488558
639.7714063590
522.9761360919
680.2495900749
509.5643069448
635.2593836667
624.2598408509
645.6666173747
592.1070409492
641.2351045118
683.2092947572
501.2382943410
684.0478350884
668.8331081375
660.4509599626
502.8773855211
506.1325835850
505.9844075362
650.3143521642
672.4202534496
674.6124824054
743.6210469156
507.7776344374
543.0562956241
644.4439421552
741.2483816007
642.5336270365
729.3944561502
527.8874215719
622.2060238896
502.9685723752
648.8283201810
557.4124030503
594.4130747121
678.1526474918
558.1263930616
733.2420666713
513.6426587501
580.5004861826
671.9490063396
686.3785706115
637.8771121332
483.1176244792
502.3003491270
518.8094498224
729.3377773910
514.4006345326
642.3185153717
636.0698762339
668.4214773863
494.4308990985
502.1147347908
480.8991868518
634.1205745193
484.2373588034
687.4279936017
495.7582220075
660.5377101661
636.1136988284
485.2728748491
729.5175679829
503.4652338280
658.6808006218
617.1173031276
484.0256884185
517.6062375983
483.0197566046
637.9284398174
502.2660712895
487.1141119464
573.4366347323
504.4918043010
508.7883403220
481.5729313517
600.2624254494
518.2114418216
645.5161093894
622.9528799908
500.6263911345
506.4197238328
642.3808070571
584.3459151102
527.8593322412
558.9553276209
490.4600716667
636.5553089584
611.6246229046
719.9225130309
504.6515811245
504.3439782967
637.3253615630
696.4219637496
727.5562005120
605.1322252385
486.1366801566
741.6044103609
554.1848621778
493.4784856198
722.9829376089
744.6710128489
742.0126967052
748.6784942927
718.7156105207
746.9361202815
638.1034487992
482.8292589377
717.5860310557
769.1744322270
765.4455300328
569.0210227611
496.4401951584
767.5351124995
765.5572131640
768.3991675905
723.2278052007
767.4517432982
536.9296446946
675.0710050328
765.4565083109
766.4806055947
753.4869951764
765.6269605506
766.4354666319
492.6903104338
487.6618583191
484.5567137213
740.3322012298
745.3211859145
512.5553114584
630.7247944843
754.3810910983
708.5764442472
761.5784476215
493.6036896639
672.0509795308
699.6556962750
700.6956361902
607.8688530247
749.0435741019
570.9780265986
726.2485304421
744.5497241660
738.5727474643
491.1378597232
516.8886531119
562.4491635991
683.7406559148
494.7017510768
650.1840542642
488.0836674376
503.6115012140
538.4993448097
486.7169987091
717.0559256755
749.7720305460
744.8816008243
772.5635312902
654.8872566806
555.2976601651
643.7302049916
681.7730785780
760.9805460151
759.5762607137
533.3838972455
499.4485669281
521.5248286166
488.1193074314
767.6710039134
739.7669811256
754.1264614409
767.1869803582
727.7051393697
493.7268573913
759.9058609391
588.3905381973
495.9867161004
706.9144586110
768.5611908098
486.5433213439
688.6318508019
504.3963873248
736.1321784343
759.4268457264
763.2208653307
486.8808025870
530.3490923232
489.3200390170
664.6217629477
509.3891685018
765.7137290689
738.4569051935
492.4778156439
547.2779859175
742.3137207339
747.1715136580
499.4352659239
773.9000451333
501.9212647051
749.1054299978
516.2087761124
754.8414263415
760.8323301125
744.0546903113
733.9370463901
496.3419488237
613.7692541719
692.9766221026
512.5698210941
768.7642245260
581.1189707707
734.8130793371
772.5340833357
522.9312414690
661.1404578036
691.7321286766
554.1549499759
787.0278867402
750.7494376013
530.2137234940
768.0662068885
677.3652385069
761.3544524864
766.7501495997
616.8820025239
743.8569345411
787.0591921802
603.4700742474
758.1055199378
787.0389117407
506.6005672016
503.9348138239
745.7260366657
517.7406945683
718.4686121404
749.6052032110
570.7683984214
493.6136292556
715.6336565290
786.9216573178
728.5123991307
533.3733339838
496.5771892137
721.7349626477
733.9993562813
747.5679715772
749.0373807471
765.2090819986
775.0342437667
526.2068218817
500.7553747836
538.1525961201
642.5244949925
682.6962931872
761.2931561992
774.8721958349
509.6809946339
713.0841539238
556.3839008582
787.0710121263
518.3995244838
734.1026845596
731.1726613780
693.8075208565
732.6009363834
746.1008986343
744.3677501361
496.6773556317
499.3071583530
718.4899523180
754.7481245043
731.5564683912
746.1761066007
767.7842222278
536.4478668694
688.0135515220
786.3724044983
786.9092590726
497.6252553186
738.6129654086
787.0599957998
760.0792086744
515.6434936327
600.6623461196
742.5852258788
718.7660345508
786.8252648273
669.0512829267
752.6770513861
750.0023504968
499.8397315582
787.0727208041
744.7590116997
767.6865577273
604.5629694567
704.7980827019
622.4172376756
734.6197190783
510.7957349576
786.2887853607
786.2150390969
606.3115367084
786.5766232325
562.3548498219
586.8957729517
500.1028954732
733.8448051271
526.4944145642
579.7790528682
709.9563429952
746.4647778020
647.0832609018
512.5911586542
572.8356294684
608.1053636776
695.9825477765
785.5716285170
622.8099737082
502.9130021259
530.1686462317
592.2492948515
785.6528790679
511.1868752672
507.7490842231
746.8610971969
578.2913623878
509.7663270242
735.3608638536
772.5731136461
785.6643516026
719.0027067684
544.6751740084
682.0516598187
506.0863684901
551.6300611926
777.3908688988
641.5773716855
625.5863226629
733.3687618855
571.4063888662
530.2165193547
706.4884619755
691.9238997163
694.6592211936
749.4446998377
514.5593570243
505.0597717649
583.9014632074
766.4014078773
768.4508463764
742.8552009604
736.2289419129
542.9415787356
508.0051150630
638.5885332282
766.4816910768
523.7499688976
533.2134082721
607.1497679622
763.1361481400
785.0798659885
530.7300334614
509.9410028387
507.6118260993
524.7647733192
518.8824756817
576.2492214961
576.2339259861
560.0357135936
632.9636007167
736.5602080841
751.8640602027
737.0834670307
510.9378713760
575.3667840082
570.9651438838
599.6629911739
734.4526103515
755.4440805686
571.5771941868
735.6402921394
517.9727309019
510.1018258992
750.5686725114
765.9571883614
553.3881526659
707.3447982733
739.5811998921
753.8672231346
765.9392802951
527.6943735001
718.5869458789
755.2147106157
784.1386502208
784.5671076047
523.1523196221
738.0757730791
771.0597285057
771.7058638310
524.4922360027
728.4912939727
757.2240517099
766.9665152790
535.7855269924
785.3782586961
564.1205318171
513.0135172714
754.7960727943
771.2646217216
527.4783819005
737.1571060069
560.2311226226
516.7801031860
748.8032933213
785.8148645972
772.8603003036
782.7559655760
546.5250029857
716.8606423156
731.9011997345
535.2508019191
540.3344033274
738.1887929179
767.7052790185
535.5912404797
752.5946473767
775.5876912216
530.9912506448
777.0890143341
527.7193239837
559.0755230924
727.5636757466
748.9257752887
777.8844537860
552.1842729557
521.3227929926
526.5093712137
549.5473404538
740.4295479209
778.8521250902
779.3135169729
770.7306809674
784.7916605959
523.2224161016
736.6235125334
736.9173503951
773.4119069728
783.7099992724
542.0591006930
527.3260348109
739.1831376060
556.1773579004
535.3489334547
772.8027798185
541.6414681159
525.0050758850
530.0622738719
735.7447174438
738.4565689175
771.0164702087
779.5652157229
739.0619882189
722.6346555784
768.6971022107
539.2202997036
544.6017601045
529.7095469173
774.3533989997
549.4354413408
546.5660154741
542.7220370322
538.8191194649
735.6385662671
726.7010844152
734.8907873124
542.2772620652
737.2878087676
534.8953265265
533.8446058167
542.3720721560
541.8601404249
770.8358538916
538.1434077287
774.9709592640
738.3646142275
781.2647273318
729.0043442717
729.8669387509
776.7084892036
732.3977951259
781.5863587922
781.6490473020
736.4747263322
738.1781957631
738.1804081344
776.3373376191
733.2176074002
734.2926192594
738.1390655362
733.9302910520
737.6202501700
736.7042893424
736.9717893624
735.4353773052
735.7321048619
737.9697165184
736.4154128400
737.4953794386
737.2213469460
736.3048898644
736.7636340196
736.8304728931
772.1855499971
525.4956386089
675.2201458321
473.4249662483
627.4256995060
644.6700146035
631.1603741402
643.8372809534
602.8429726345
509.6192120648
502.6228331540
741.3321225445
736.6435226518
722.8845715173
664.7481782178
599.2749417553
643.0293117689
778.2871656329
659.8240808978
730.7099683869
487.8666170041
636.6245502218
777.3684687452
474.8125342973
782.5808121549
737.6947888252
594.3376198637
640.2762676094
714.1124083047
737.6133715648
534.3181467782
547.6785424282
677.5158191241
546.0700978060
675.6259399616
733.9438907955
728.4858586780
562.9166947256
700.6102186516
536.5213352594
723.8661681579
741.4851052427
552.6959201287
503.8541783040
485.5018043657
670.9827702470
675.4314293775
516.8893527811
681.3657908544
675.0870974367
704.2305887821
655.9608062690
714.6578706814
494.6881514652
504.7127598797
546.3144374877
737.8126769385
723.4947993031
775.3769468882
734.9736466282
504.1407472344
472.5230498801
476.5242826510
615.3964051180
738.5292982412
707.8523208097
520.6096440152
475.7129413814
476.0309175992
496.8944491849
617.4962311729
539.8793591211
567.3396910226
476.3554289061
474.9415584113
786.0496958402
592.7937721407
730.7651278495
643.8138652250
676.5412473900
684.0527100145
786.4056937449
699.0604784859
608.9216883855
721.7054514092
477.9298983622
669.7110406723
732.3268605314
664.4138931526
547.0624824651
524.3043946466
742.3423624700
474.8838298362
766.3194165106
477.1616209488
541.3798152891
709.3926762754
507.0847270584
747.4411434487
506.9942263176
610.4438336325
504.0959506677
784.7918343345
552.9020266514
631.8183828120
468.8966677436
674.0990260004
676.1997456983
662.3795476745
528.8086403388
470.0755899576
767.8355194167
702.7646468703
508.7528234187
523.5771886949
737.4410728600
499.8647677608
711.0098444307
737.0834731378
676.8316121717
663.6236425671
735.2862957681
541.1831941141
760.9484383689
502.7721292583
736.3840824982
681.7682469424
621.0550135448
738.2603159709
480.2485190920
712.7963657446
734.4483620903
527.4014884920
721.2812740099
764.6562676551
768.6896385204
522.7407108579
540.0523307371
475.4165413684
466.8650958698
651.8872150768
623.1097911265
671.8809707573
692.8237598510
519.4493514048
541.5576355543
604.4190994942
737.7811076977
503.6732245716
640.6939639645
482.7894399417
739.5991685287
719.2334834572
665.1755928223
773.1512951808
683.6463180424
502.4871826844
766.5851916940
782.3409063633
742.7185899146
690.5432746442
776.3041729754
503.9240958697
741.7398401967
763.0767257726
754.6737214886
691.3037314024
503.8702603569
539.6675742299
771.1849323339
651.3202837456
732.3445264761
704.3342193443
635.6823421639
601.5918668527
671.1128217372
651.1326208054
489.6659791280
774.8146297312
659.6090550668
506.0811031088
514.2462080541
524.3758374469
756.1791443245
530.9324104697
784.1331238898
479.2086517096
517.1788986737
695.2333407488
783.0958102112
744.1388324058
755.5806693987
703.8593843266
655.0009568393
467.5552725506
639.0107116434
534.4048910639
729.8771985497
539.7401651336
760.1123247726
668.4555414132
479.1591190352
785.9408808855
643.4426573051
488.2403104809
765.0484206868
504.8207082730
767.6198538215
508.9609477375
769.6286759873
709.7252700058
742.4518379623
733.2816502379
769.5335967843
784.7208363479
592.7315667106
763.1357739716
520.8334585066
635.8974642833
468.4736684275
673.3878300572
781.3113654742
778.9136386952
658.3612108002
683.1528549871
762.4140314272
653.8781032233
525.5804434626
475.0955599217
490.0929652979
478.7557463784
733.6995957312
735.0910914788
677.2752953789
547.9760603763
613.9509705742
761.4768910938
779.6775459401
597.2757950074
616.0453655814
591.6265995650
653.7348975712
632.5929300275
538.3105459482
670.6726385934
670.7749135563
689.4439275478
785.4917736450
730.1554531123
528.5865816671
485.9922300500
767.2168377466
505.1860050925
481.0354776164
480.0274725737
468.1075374528
676.6506511231
665.0429587597
605.2171976693
532.5133932911
693.4252361307
738.0724966716
470.4932839392
765.1861536981
635.5456726515
649.6186336562
640.1129014077
510.4169553779
640.8351192510
483.8556150002
510.5586217024
778.7106639048
765.3831066556
761.4041500072
521.6114659168
530.9103992402
642.0437603156
737.5238540701
770.2921786428
764.6425805187
482.8860994031
662.7220368204
675.2693297554
672.7139253624
498.3693257734
628.5507452317
778.0910603461
706.6754730973
786.9572840750
570.9523042395
757.1785454284
775.4190833401
499.8698569949
638.3862891270
475.9226634430
635.1799095574
476.9944610765
496.2443492087
610.5370667983
507.4655084581
498.2925594845
643.3374639934
780.7868947253
482.4225240248
677.1529073002
633.6888604893
661.4536443921
647.6237736207
760.5369781779
737.5363605542
481.1147244384
673.1979254459
647.4495431773
772.9357767041
606.6937302537
773.6324841797
649.2559178285
774.5340626153
633.0689104472
498.5133298322
641.4898101239
630.5205143827
677.7478177882
777.3805857419
674.2835509732
472.0917319543
744.1350454480
468.0582460967
786.4160778646
774.1378892249
485.9495944272
545.9091329654
741.7306605372
739.2184143859
767.1131853240
758.5381616083
729.4601918554
634.3127467268
528.4519889319
754.7116537785
554.8731668261
767.2020834642
478.1471722878
741.5679585824
700.8608452930
786.2911923808
568.4119792448
744.5189198359
579.4249566271
476.3787948928
476.6097421633
644.2114717296
658.3867044539
775.4715949349
565.1580060059
734.0390786811
684.1449702240
606.9751909533
743.3562714035
774.0637757162
681.1344169648
503.2427519887
515.6903971469
676.0659125758
772.3644257712
484.7038882925
651.6219700135
593.1475615475
661.6479609824
648.6946560289
737.4337520271
677.1351102082
775.2724798709
546.9552957768
683.4951489405
527.6952264953
503.7948199251
669.9248877153
739.0227789123
773.5367640663
658.9635386228
527.0128115837
701.3641194833
469.2361025654
537.0777120464
671.5507620393
498.8671203074
665.7925760816
747.6757143451
755.0374493242
552.6965123681
642.2414075609
604.0974754275
613.9088008768
539.4798319930
556.3874155600
637.4046622561
674.0591927648
496.9553974463
582.2459983550
726.3141765547
735.4766019668
489.2961698939
765.8935707064
508.0232700084
640.6609341745
498.6555582841
754.6476426588
529.8698621690
740.6960273058
496.4143312563
742.4289507104
514.6252326189
649.6308384373
731.9637671267
484.6450449858
525.9580298889
519.6753778871
668.1759789630
643.0052126234
512.0113434362
468.6295008947
782.1459901979
487.3514031338
505.4470957301
596.8418719637
583.2165766213
650.0503026766
733.2393752576
485.0744898514
524.4195232612
503.1262012963
474.3019499459
737.8467373807
517.4787484283
771.8193404392
644.3253902198
587.0822657105
517.1814737110
722.4078727811
504.6677738562
730.1309543407
737.2646787180
769.1521217520
535.3747723954
720.0983492350
530.5130865036
533.4125090698
473.6690551112
535.4088642904
783.5224068563
687.7093337878
666.9511606074
785.8897648357
467.2448116995
558.6583238265
773.4007945050
493.4318658902
742.2399736134
722.4760046957
475.2493737863
769.1807005973
697.9103741509
747.9948949298
517.3807991002
617.8430394106
476.4815635592
505.8030398858
610.2412086434
778.0095490269
757.6730928375
507.3243162276
727.4917173721
504.9078185626
781.2122614033
561.5119204251
503.1892327980
479.4070851932
771.1924486580
784.8458684505
480.1216528798
734.6231675428
538.9330884641
474.6847541643
786.8320634016
772.0598711568
690.0487824933
500.3765699211
674.6045750798
501.6019517982
467.3724522943
469.6303955436
501.0489649917
727.4094638386
762.9707955756
514.7554752057
665.6756667739
487.5947750653
758.1861940711
571.7515894075
677.4418847863
544.1986715204
729.2404012846
681.0558529345
508.9368113094
512.6754663710
737.8157259859
738.4458545044
771.2151002652
769.0335398839
471.2314029774
621.7857108879
720.5691642090
706.2451660480
482.1308973490
599.5898548802
589.0237604922
528.8012581849
753.2409212534
766.4721958828
641.4445202561
480.3691390468
738.7742504628
619.3161183440
768.9044556609
750.9246674437
467.8136449221
773.3501268480
778.3323456986
708.0048595171
507.7728641714
649.5536657688
662.7024552352
483.4339750997
639.2746798283
661.7147214705
536.9035473203
741.7171383132
537.9238182058
678.8073571260
651.7844185896
506.6218157388
735.7477637307
775.1367105097
747.1811141976
777.2073566591
733.4836727034
639.9318272229
736.9444111621
506.7781575569
481.0178865389
676.0650281111
770.6407608152
756.9760245330
682.3431318475
510.8130548116
499.1604212137
474.8746523471
732.6670449941
527.3184772445
775.9445651157
773.3888044464
548.2070131870
728.7152289370
616.5314240589
667.0003936362
679.8401876675
676.2809371359
721.2622148571
668.2011433426
735.3785763775
636.8310822606
736.9125280008
741.8833072469
687.8171604831
587.8671595946
636.6952819443
671.2868830237
534.9286988393
786.9497865818
750.7133917686
758.6231064297
557.7895474566
734.0462718583
656.3023977010
731.9639689556